 DBCSR| CPU Multiplication driver                                           XSMM (U)
 DBCSR| Multrec recursion limit                                              512 (U)
 DBCSR| Multiplication stack size                                           1000 (D)
 DBCSR| Maximum elements for images                                    UNLIMITED (U)
 DBCSR| Multiplicative factor virtual images                                   1 (U)
 DBCSR| Use multiplication densification                                       T (D)
 DBCSR| Multiplication size stacks                                             3 (U)
 DBCSR| Use memory pool for CPU allocation                                     F (U)
 DBCSR| Number of 3D layers                                               SINGLE (U)
 DBCSR| Use MPI memory allocation                                              F (U)
 DBCSR| Use RMA algorithm                                                      F (U)
 DBCSR| Use Communication thread                                               T (U)
 DBCSR| Communication thread load                                             83 (D)
 DBCSR| MPI: My process id                                                     0
 DBCSR| MPI: Number of processes                                              90
 DBCSR| OMP: Current number of threads                                         2
 DBCSR| OMP: Max number of threads                                             2
 DBCSR| Split modifier for TAS multiplication algorithm                  1.0E+00 (U)


  **** **** ******  **  PROGRAM STARTED AT               2024-02-20 08:30:58.989
 ***** ** ***  *** **   PROGRAM STARTED ON                          99013c94550d
 **    ****   ******    PROGRAM STARTED BY                             <unknown>
 ***** **    ** ** **   PROGRAM PROCESS ID                                   538
  **** **  *******  **  PROGRAM STARTED IN                                  /mnt

 CP2K| version string:                                       CP2K version 2023.2
 CP2K| source code revision number:                                  git:65cca6c
 CP2K| cp2kflags: omp libint fftw3 libxc pexsi elpa parallel scalapack cosma qui
 CP2K|            p xsmm plumed2 spglib sirius libvori libbqb libtorch libvdwxc
 CP2K| is freely available from                            https://www.cp2k.org/
 CP2K| Program compiled at                          Wed Oct 18 11:40:41 UTC 2023
 CP2K| Program compiled on                                          633bb7bf566f
 CP2K| Program compiled for                                                local
 CP2K| Data directory path                                        /opt/cp2k/data
 CP2K| Input file name                                   4amp15pbesolventstda.in

 GLOBAL| Force Environment number                                              1
 GLOBAL| Basis set file name                                      GTH_BASIS_SETS
 GLOBAL| Potential file name                                           POTENTIAL
 GLOBAL| MM Potential file name                                     MM_POTENTIAL
 GLOBAL| Coordinate file name                                      __STD_INPUT__
 GLOBAL| Method name                                                        CP2K
 GLOBAL| Project name                                       4amp15pbesolventstda
 GLOBAL| Run type                                                         ENERGY
 GLOBAL| FFT library                                                       FFTW3
 GLOBAL| Diagonalization library                                       ScaLAPACK
 GLOBAL| DGEMM library                                                      BLAS
 GLOBAL| Orthonormality check for eigenvectors                          DISABLED
 GLOBAL| Matrix multiplication library                                     COSMA
 GLOBAL| All-to-all communication in single precision                          F
 GLOBAL| FFTs using library dependent lengths                                  F
 GLOBAL| Grid backend                                                       AUTO
 GLOBAL| Global print level                                                  LOW
 GLOBAL| MPI I/O enabled                                                       T
 GLOBAL| Total number of message passing processes                            90
 GLOBAL| Number of threads for this process                                    2
 GLOBAL| This output is from process                                           0
 GLOBAL| Stack size for threads created by OpenMP (OMP_STACKSIZE)            16M
 GLOBAL| CPU model name                                            AMD EPYC 9B14
 GLOBAL| CPUID                                                              1003
 GLOBAL| Compiled for CPUID                                                    0

 *** HINT in environment.F:904 :: The compiler target flags (generic) used ***
 *** to build this binary cannot exploit all extensions of this CPU model  ***
 *** (x86_avx512). Consider compiler target flags as part of FCFLAGS and   ***
 *** CFLAGS (ARCH file).                                                   ***


 MEMORY| system memory details [Kb]
 MEMORY|                        rank 0           min           max       average
 MEMORY| MemTotal            742610088     742610088     742610088     742610088
 MEMORY| MemFree             728695624     728695624     728695624     728695624
 MEMORY| Buffers                 22664         22664         22664         22664
 MEMORY| Cached                 845768        845768        845768        845768
 MEMORY| Slab                   438036        438036        438036        438036
 MEMORY| SReclaimable            95268         95268         95268         95268
 MEMORY| MemLikelyFree       729659324     729659324     729659324     729659324


 GENERATE|  Preliminary Number of Bonds generated:                             0
 GENERATE|  Achieved consistency in connectivity generation.

 *******************************************************************************
 *******************************************************************************
 **                                                                           **
 **     #####                         ##              ##                      **
 **    ##   ##            ##          ##              ##                      **
 **   ##     ##                       ##            ######                    **
 **   ##     ##  ##   ##  ##   #####  ##  ##   ####   ##    #####    #####    **
 **   ##     ##  ##   ##  ##  ##      ## ##   ##      ##   ##   ##  ##   ##   **
 **   ##  ## ##  ##   ##  ##  ##      ####     ###    ##   ######   ######    **
 **    ##  ###   ##   ##  ##  ##      ## ##      ##   ##   ##       ##        **
 **     #######   #####   ##   #####  ##  ##  ####    ##    #####   ##        **
 **           ##                                                    ##        **
 **                                                                           **
 **                                                ... make the atoms dance   **
 **                                                                           **
 **            Copyright (C) by CP2K developers group (2000-2023)             **
 **                      J. Chem. Phys. 152, 194103 (2020)                    **
 **                                                                           **
 *******************************************************************************


 TOTAL NUMBERS AND MAXIMUM NUMBERS

  Total number of            - Atomic kinds:                                   4
                             - Atoms:                                        196
                             - Shell sets:                                   392
                             - Shells:                                      1120
                             - Primitive Cartesian functions:               1176
                             - Cartesian basis functions:                   2520
                             - Spherical basis functions:                   2408

  Maximum angular momentum of- Orbital basis functions:                        2
                             - Local part of the GTH pseudopotential:          2
                             - Non-local part of the GTH pseudopotential:      0


 SCF PARAMETERS         Density guess:                                    ATOMIC
                        --------------------------------------------------------
                        max_scf:                                             128
                        max_scf_history:                                       0
                        max_diis:                                              4
                        --------------------------------------------------------
                        eps_scf:                                        1.00E-06
                        eps_scf_history:                                0.00E+00
                        eps_diis:                                       1.00E-01
                        eps_eigval:                                     1.00E-05
                        --------------------------------------------------------
                        level_shift [a.u.]:                             0.000000
                        added MOs                                        30    0
                        --------------------------------------------------------
                        Mixing method:                            BROYDEN_MIXING
                                                charge density mixing in g-space
                        --------------------------------------------------------
                        No outer SCF

 Number of electrons:                                                        560
 Number of occupied orbitals:                                                280
 Number of molecular orbitals:                                               310

 Number of orbital functions:                                               2408
 Number of independent orbital functions:                                   2408

 Extrapolation method: initial_guess


 SCF WAVEFUNCTION OPTIMIZATION

  Step     Update method      Time    Convergence         Total energy    Change
  ------------------------------------------------------------------------------
     1 NoMix/Diag. 0.40E+00    1.2    13.13003432      -824.3573459122 -8.24E+02
     2 Broy./Diag. 0.40E+00    2.1     2.36271113      -763.0834506341  6.13E+01
     3 Broy./Diag. 0.40E+00    1.9     1.36017415      -810.3283000057 -4.72E+01
     4 Broy./Diag. 0.40E+00    1.8     0.44370036      -826.1337537101 -1.58E+01
     5 Broy./Diag. 0.40E+00    1.8     0.43706755      -829.8639314672 -3.73E+00
     6 Broy./Diag. 0.40E+00    1.8     0.13051723      -828.6065820844  1.26E+00
     7 Broy./Diag. 0.40E+00    1.9     0.05446953      -828.3263402695  2.80E-01
     8 Broy./Diag. 0.40E+00    1.9     0.02915930      -828.2670841950  5.93E-02
     9 Broy./Diag. 0.40E+00    1.9     0.01081028      -828.2714861550 -4.40E-03
    10 Broy./Diag. 0.40E+00    1.9     0.00747851      -828.2879460708 -1.65E-02
  SCCS| Iteration cycle converged in 30 steps
  SCCS|
  SCCS| Polarisation charge                                      -0.124045982714
  SCCS|
  SCCS| Hartree energy of solute and solvent [Hartree]        803.27238197289671
  SCCS| Hartree energy of the solute only    [Hartree]        803.30674241290546
  SCCS| Polarisation energy                  [Hartree]         -0.03436044000892
  SCCS|                                      [kcal/mol]                  -21.562
  SCCS| Cavitation energy                    [Hartree]          0.00610128626555
  SCCS|                                      [kcal/mol]                    3.829
  SCCS| Dispersion free energy               [Hartree]         -0.20390827819372
  SCCS|                                      [kcal/mol]                 -127.954
  SCCS| Repulsion free energy                [Hartree]          0.00165515398966
  SCCS|                                      [kcal/mol]                    1.039
  SCCS| Solvation free energy                [Hartree]         -0.23051227794743
  SCCS|                                      [kcal/mol]                 -144.649
    11 Broy./Diag. 0.40E+00    3.0     0.34196107      -828.3276514245 -3.97E-02
  SCCS| Iteration cycle converged in 14 steps
  SCCS|
  SCCS| Polarisation charge                                      -0.124073619384
  SCCS|
  SCCS| Hartree energy of solute and solvent [Hartree]        803.27159620145858
  SCCS| Hartree energy of the solute only    [Hartree]        803.30594950038085
  SCCS| Polarisation energy                  [Hartree]         -0.03435329892216
  SCCS|                                      [kcal/mol]                  -21.557
  SCCS| Cavitation energy                    [Hartree]          0.00610391869702
  SCCS|                                      [kcal/mol]                    3.830
  SCCS| Dispersion free energy               [Hartree]         -0.20390737080222
  SCCS|                                      [kcal/mol]                 -127.954
  SCCS| Repulsion free energy                [Hartree]          0.00165586811440
  SCCS|                                      [kcal/mol]                    1.039
  SCCS| Solvation free energy                [Hartree]         -0.23050088291295
  SCCS|                                      [kcal/mol]                 -144.641
    12 Broy./Diag. 0.40E+00    2.4     0.00025814      -828.0490602446  2.79E-01
  SCCS| Iteration cycle converged in 17 steps
  SCCS|
  SCCS| Polarisation charge                                      -0.124261757724
  SCCS|
  SCCS| Hartree energy of solute and solvent [Hartree]        803.26869869036500
  SCCS| Hartree energy of the solute only    [Hartree]        803.30300725554889
  SCCS| Polarisation energy                  [Hartree]         -0.03430856518392
  SCCS|                                      [kcal/mol]                  -21.529
  SCCS| Cavitation energy                    [Hartree]          0.00611870748815
  SCCS|                                      [kcal/mol]                    3.840
  SCCS| Dispersion free energy               [Hartree]         -0.20390212545825
  SCCS|                                      [kcal/mol]                 -127.951
  SCCS| Repulsion free energy                [Hartree]          0.00165988001051
  SCCS|                                      [kcal/mol]                    1.042
  SCCS| Solvation free energy                [Hartree]         -0.23043210314351
  SCCS|                                      [kcal/mol]                 -144.598
    13 Broy./Diag. 0.40E+00    2.5     0.00161928      -828.0553887210 -6.33E-03
  SCCS| Iteration cycle converged in 20 steps
  SCCS|
  SCCS| Polarisation charge                                      -0.125104900258
  SCCS|
  SCCS| Hartree energy of solute and solvent [Hartree]        803.26152903957995
  SCCS| Hartree energy of the solute only    [Hartree]        803.29562638111679
  SCCS| Polarisation energy                  [Hartree]         -0.03409734153700
  SCCS|                                      [kcal/mol]                  -21.396
  SCCS| Cavitation energy                    [Hartree]          0.00616901621531
  SCCS|                                      [kcal/mol]                    3.871
  SCCS| Dispersion free energy               [Hartree]         -0.20388409139644
  SCCS|                                      [kcal/mol]                 -127.939
  SCCS| Repulsion free energy                [Hartree]          0.00167352773771
  SCCS|                                      [kcal/mol]                    1.050
  SCCS| Solvation free energy                [Hartree]         -0.23013888898041
  SCCS|                                      [kcal/mol]                 -144.414
    14 Broy./Diag. 0.40E+00    2.6     0.00641751      -828.0755560080 -2.02E-02
  SCCS| Iteration cycle converged in 22 steps
  SCCS|
  SCCS| Polarisation charge                                      -0.126805595576
  SCCS|
  SCCS| Hartree energy of solute and solvent [Hartree]        803.25133169174137
  SCCS| Hartree energy of the solute only    [Hartree]        803.28484626651141
  SCCS| Polarisation energy                  [Hartree]         -0.03351457477011
  SCCS|                                      [kcal/mol]                  -21.031
  SCCS| Cavitation energy                    [Hartree]          0.00625557258278
  SCCS|                                      [kcal/mol]                    3.925
  SCCS| Dispersion free energy               [Hartree]         -0.20385293648293
  SCCS|                                      [kcal/mol]                 -127.920
  SCCS| Repulsion free energy                [Hartree]          0.00169700870724
  SCCS|                                      [kcal/mol]                    1.065
  SCCS| Solvation free energy                [Hartree]         -0.22941492996303
  SCCS|                                      [kcal/mol]                 -143.960
    15 Broy./Diag. 0.40E+00    2.7     0.01196246      -828.1187319034 -4.32E-02
  SCCS| Iteration cycle converged in 23 steps
  SCCS|
  SCCS| Polarisation charge                                      -0.128894218914
  SCCS|
  SCCS| Hartree energy of solute and solvent [Hartree]        803.24042721364617
  SCCS| Hartree energy of the solute only    [Hartree]        803.27291459477487
  SCCS| Polarisation energy                  [Hartree]         -0.03248738112874
  SCCS|                                      [kcal/mol]                  -20.386
  SCCS| Cavitation energy                    [Hartree]          0.00634001313477
  SCCS|                                      [kcal/mol]                    3.978
  SCCS| Dispersion free energy               [Hartree]         -0.20382268287847
  SCCS|                                      [kcal/mol]                 -127.901
  SCCS| Repulsion free energy                [Hartree]          0.00171991569938
  SCCS|                                      [kcal/mol]                    1.079
  SCCS| Solvation free energy                [Hartree]         -0.22825013517306
  SCCS|                                      [kcal/mol]                 -143.229
    16 Broy./Diag. 0.40E+00    2.8     0.01323261      -828.1792220483 -6.05E-02
  SCCS| Iteration cycle converged in 23 steps
  SCCS|
  SCCS| Polarisation charge                                      -0.130820240939
  SCCS|
  SCCS| Hartree energy of solute and solvent [Hartree]        803.23143812936860
  SCCS| Hartree energy of the solute only    [Hartree]        803.26259588383857
  SCCS| Polarisation energy                  [Hartree]         -0.03115775447000
  SCCS|                                      [kcal/mol]                  -19.552
  SCCS| Cavitation energy                    [Hartree]          0.00640168332708
  SCCS|                                      [kcal/mol]                    4.017
  SCCS| Dispersion free energy               [Hartree]         -0.20380087111737
  SCCS|                                      [kcal/mol]                 -127.887
  SCCS| Repulsion free energy                [Hartree]          0.00173664555935
  SCCS|                                      [kcal/mol]                    1.090
  SCCS| Solvation free energy                [Hartree]         -0.22682029670094
  SCCS|                                      [kcal/mol]                 -142.332
    17 Broy./Diag. 0.40E+00    2.8     0.01096714      -828.2391829805 -6.00E-02
  SCCS| Iteration cycle converged in 21 steps
  SCCS|
  SCCS| Polarisation charge                                      -0.132054977207
  SCCS|
  SCCS| Hartree energy of solute and solvent [Hartree]        803.22641272425039
  SCCS| Hartree energy of the solute only    [Hartree]        803.25643077681298
  SCCS| Polarisation energy                  [Hartree]         -0.03001805256257
  SCCS|                                      [kcal/mol]                  -18.837
  SCCS| Cavitation energy                    [Hartree]          0.00643284591313
  SCCS|                                      [kcal/mol]                    4.037
  SCCS| Dispersion free energy               [Hartree]         -0.20379025118574
  SCCS|                                      [kcal/mol]                 -127.880
  SCCS| Repulsion free energy                [Hartree]          0.00174509933064
  SCCS|                                      [kcal/mol]                    1.095
  SCCS| Solvation free energy                [Hartree]         -0.22563035850454
  SCCS|                                      [kcal/mol]                 -141.585
    18 Broy./Diag. 0.40E+00    2.7     0.00786810      -828.2836728804 -4.45E-02
  SCCS| Iteration cycle converged in 19 steps
  SCCS|
  SCCS| Polarisation charge                                      -0.132651935581
  SCCS|
  SCCS| Hartree energy of solute and solvent [Hartree]        803.22423123094234
  SCCS| Hartree energy of the solute only    [Hartree]        803.25351113639090
  SCCS| Polarisation energy                  [Hartree]         -0.02927990544861
  SCCS|                                      [kcal/mol]                  -18.373
  SCCS| Cavitation energy                    [Hartree]          0.00644212422124
  SCCS|                                      [kcal/mol]                    4.042
  SCCS| Dispersion free energy               [Hartree]         -0.20378745809090
  SCCS|                                      [kcal/mol]                 -127.879
  SCCS| Repulsion free energy                [Hartree]          0.00174761634558
  SCCS|                                      [kcal/mol]                    1.097
  SCCS| Solvation free energy                [Hartree]         -0.22487762297269
  SCCS|                                      [kcal/mol]                 -141.113
    19 Broy./Diag. 0.40E+00    2.6     0.00480893      -828.3075642091 -2.39E-02
  SCCS| Iteration cycle converged in 18 steps
  SCCS|
  SCCS| Polarisation charge                                      -0.132926274649
  SCCS|
  SCCS| Hartree energy of solute and solvent [Hartree]        803.22337159893073
  SCCS| Hartree energy of the solute only    [Hartree]        803.25216419627782
  SCCS| Polarisation energy                  [Hartree]         -0.02879259734717
  SCCS|                                      [kcal/mol]                  -18.068
  SCCS| Cavitation energy                    [Hartree]          0.00644294098705
  SCCS|                                      [kcal/mol]                    4.043
  SCCS| Dispersion free energy               [Hartree]         -0.20378761028454
  SCCS|                                      [kcal/mol]                 -127.879
  SCCS| Repulsion free energy                [Hartree]          0.00174783791741
  SCCS|                                      [kcal/mol]                    1.097
  SCCS| Solvation free energy                [Hartree]         -0.22438942872725
  SCCS|                                      [kcal/mol]                 -140.806
    20 Broy./Diag. 0.40E+00    2.5     0.00302322      -828.3173006529 -9.74E-03
  SCCS| Iteration cycle converged in 17 steps
  SCCS|
  SCCS| Polarisation charge                                      -0.132993248636
  SCCS|
  SCCS| Hartree energy of solute and solvent [Hartree]        803.22335472684063
  SCCS| Hartree energy of the solute only    [Hartree]        803.25189180637540
  SCCS| Polarisation energy                  [Hartree]         -0.02853707953497
  SCCS|                                      [kcal/mol]                  -17.907
  SCCS| Cavitation energy                    [Hartree]          0.00644004925318
  SCCS|                                      [kcal/mol]                    4.041
  SCCS| Dispersion free energy               [Hartree]         -0.20378892960786
  SCCS|                                      [kcal/mol]                 -127.879
  SCCS| Repulsion free energy                [Hartree]          0.00174705344924
  SCCS|                                      [kcal/mol]                    1.096
  SCCS| Solvation free energy                [Hartree]         -0.22413890644041
  SCCS|                                      [kcal/mol]                 -140.649
    21 Broy./Diag. 0.40E+00    2.7     0.00150849      -828.3202548792 -2.95E-03
  SCCS| Iteration cycle converged in 16 steps
  SCCS|
  SCCS| Polarisation charge                                      -0.133017282981
  SCCS|
  SCCS| Hartree energy of solute and solvent [Hartree]        803.22341162117050
  SCCS| Hartree energy of the solute only    [Hartree]        803.25182612521598
  SCCS| Polarisation energy                  [Hartree]         -0.02841450404547
  SCCS|                                      [kcal/mol]                  -17.830
  SCCS| Cavitation energy                    [Hartree]          0.00643914328751
  SCCS|                                      [kcal/mol]                    4.041
  SCCS| Dispersion free energy               [Hartree]         -0.20378935204234
  SCCS|                                      [kcal/mol]                 -127.880
  SCCS| Repulsion free energy                [Hartree]          0.00174680767931
  SCCS|                                      [kcal/mol]                    1.096
  SCCS| Solvation free energy                [Hartree]         -0.22401790512099
  SCCS|                                      [kcal/mol]                 -140.573
    22 Broy./Diag. 0.40E+00    2.5     0.00068191      -828.3201143424  1.41E-04
  SCCS| Iteration cycle converged in 15 steps
  SCCS|
  SCCS| Polarisation charge                                      -0.133027212875
  SCCS|
  SCCS| Hartree energy of solute and solvent [Hartree]        803.22345300512416
  SCCS| Hartree energy of the solute only    [Hartree]        803.25181650723653
  SCCS| Polarisation energy                  [Hartree]         -0.02836350211218
  SCCS|                                      [kcal/mol]                  -17.798
  SCCS| Cavitation energy                    [Hartree]          0.00643890644955
  SCCS|                                      [kcal/mol]                    4.040
  SCCS| Dispersion free energy               [Hartree]         -0.20378945959948
  SCCS|                                      [kcal/mol]                 -127.880
  SCCS| Repulsion free energy                [Hartree]          0.00174674343003
  SCCS|                                      [kcal/mol]                    1.096
  SCCS| Solvation free energy                [Hartree]         -0.22396731183209
  SCCS|                                      [kcal/mol]                 -140.542
    23 Broy./Diag. 0.40E+00    2.5     0.00028357      -828.3200123313  1.02E-04
  SCCS| Iteration cycle converged in 15 steps
  SCCS|
  SCCS| Polarisation charge                                      -0.133035040620
  SCCS|
  SCCS| Hartree energy of solute and solvent [Hartree]        803.22348686363102
  SCCS| Hartree energy of the solute only    [Hartree]        803.25180738399922
  SCCS| Polarisation energy                  [Hartree]         -0.02832052036824
  SCCS|                                      [kcal/mol]                  -17.771
  SCCS| Cavitation energy                    [Hartree]          0.00643885296158
  SCCS|                                      [kcal/mol]                    4.040
  SCCS| Dispersion free energy               [Hartree]         -0.20378948086372
  SCCS|                                      [kcal/mol]                 -127.880
  SCCS| Repulsion free energy                [Hartree]          0.00174672891984
  SCCS|                                      [kcal/mol]                    1.096
  SCCS| Solvation free energy                [Hartree]         -0.22392441935054
  SCCS|                                      [kcal/mol]                 -140.515
    24 Broy./Diag. 0.40E+00    2.5     0.00023185      -828.3199428760  6.95E-05
  SCCS| Iteration cycle converged in 14 steps
  SCCS|
  SCCS| Polarisation charge                                      -0.133039257321
  SCCS|
  SCCS| Hartree energy of solute and solvent [Hartree]        803.22349465740183
  SCCS| Hartree energy of the solute only    [Hartree]        803.25179734191215
  SCCS| Polarisation energy                  [Hartree]         -0.02830268451014
  SCCS|                                      [kcal/mol]                  -17.760
  SCCS| Cavitation energy                    [Hartree]          0.00643883002404
  SCCS|                                      [kcal/mol]                    4.040
  SCCS| Dispersion free energy               [Hartree]         -0.20378948802330
  SCCS|                                      [kcal/mol]                 -127.880
  SCCS| Repulsion free energy                [Hartree]          0.00174672269735
  SCCS|                                      [kcal/mol]                    1.096
  SCCS| Solvation free energy                [Hartree]         -0.22390661981205
  SCCS|                                      [kcal/mol]                 -140.504
    25 Broy./Diag. 0.40E+00    2.4     0.00009726      -828.3199264970  1.64E-05
  SCCS| Iteration cycle converged in 14 steps
  SCCS|
  SCCS| Polarisation charge                                      -0.133042943707
  SCCS|
  SCCS| Hartree energy of solute and solvent [Hartree]        803.22349794327829
  SCCS| Hartree energy of the solute only    [Hartree]        803.25178549109137
  SCCS| Polarisation energy                  [Hartree]         -0.02828754781283
  SCCS|                                      [kcal/mol]                  -17.751
  SCCS| Cavitation energy                    [Hartree]          0.00643883985213
  SCCS|                                      [kcal/mol]                    4.040
  SCCS| Dispersion free energy               [Hartree]         -0.20378948250402
  SCCS|                                      [kcal/mol]                 -127.880
  SCCS| Repulsion free energy                [Hartree]          0.00174672536351
  SCCS|                                      [kcal/mol]                    1.096
  SCCS| Solvation free energy                [Hartree]         -0.22389146510121
  SCCS|                                      [kcal/mol]                 -140.494
    26 Broy./Diag. 0.40E+00    2.5     0.00008211      -828.3199132687  1.32E-05
  SCCS| Iteration cycle converged in 13 steps
  SCCS|
  SCCS| Polarisation charge                                      -0.133044454620
  SCCS|
  SCCS| Hartree energy of solute and solvent [Hartree]        803.22349971304857
  SCCS| Hartree energy of the solute only    [Hartree]        803.25178088166592
  SCCS| Polarisation energy                  [Hartree]         -0.02828116861733
  SCCS|                                      [kcal/mol]                  -17.747
  SCCS| Cavitation energy                    [Hartree]          0.00643888947812
  SCCS|                                      [kcal/mol]                    4.040
  SCCS| Dispersion free energy               [Hartree]         -0.20378946124506
  SCCS|                                      [kcal/mol]                 -127.880
  SCCS| Repulsion free energy                [Hartree]          0.00174673882602
  SCCS|                                      [kcal/mol]                    1.096
  SCCS| Solvation free energy                [Hartree]         -0.22388500155824
  SCCS|                                      [kcal/mol]                 -140.490
    27 Broy./Diag. 0.40E+00    2.4     0.00003345      -828.3199124910  7.78E-07
  SCCS| Iteration cycle converged in 9 steps
  SCCS|
  SCCS| Polarisation charge                                      -0.133044165814
  SCCS|
  SCCS| Hartree energy of solute and solvent [Hartree]        803.22350002286521
  SCCS| Hartree energy of the solute only    [Hartree]        803.25178139015429
  SCCS| Polarisation energy                  [Hartree]         -0.02828136728913
  SCCS|                                      [kcal/mol]                  -17.747
  SCCS| Cavitation energy                    [Hartree]          0.00643891186910
  SCCS|                                      [kcal/mol]                    4.040
  SCCS| Dispersion free energy               [Hartree]         -0.20378945214574
  SCCS|                                      [kcal/mol]                 -127.880
  SCCS| Repulsion free energy                [Hartree]          0.00174674490024
  SCCS|                                      [kcal/mol]                    1.096
  SCCS| Solvation free energy                [Hartree]         -0.22388516266553
  SCCS|                                      [kcal/mol]                 -140.490
    28 Broy./Diag. 0.40E+00    2.3     0.00000219      -828.3199101355  2.36E-06
  SCCS| Iteration cycle converged in 9 steps
  SCCS|
  SCCS| Polarisation charge                                      -0.133043972881
  SCCS|
  SCCS| Hartree energy of solute and solvent [Hartree]        803.22349980949434
  SCCS| Hartree energy of the solute only    [Hartree]        803.25178162329019
  SCCS| Polarisation energy                  [Hartree]         -0.02828181379582
  SCCS|                                      [kcal/mol]                  -17.747
  SCCS| Cavitation energy                    [Hartree]          0.00643891610599
  SCCS|                                      [kcal/mol]                    4.040
  SCCS| Dispersion free energy               [Hartree]         -0.20378945064270
  SCCS|                                      [kcal/mol]                 -127.880
  SCCS| Repulsion free energy                [Hartree]          0.00174674604962
  SCCS|                                      [kcal/mol]                    1.096
  SCCS| Solvation free energy                [Hartree]         -0.22388560228290
  SCCS|                                      [kcal/mol]                 -140.490
    29 Broy./Diag. 0.40E+00    2.3     0.00000240      -828.3199104449 -3.09E-07
  SCCS| Iteration cycle converged in 8 steps
  SCCS|
  SCCS| Polarisation charge                                      -0.133043908418
  SCCS|
  SCCS| Hartree energy of solute and solvent [Hartree]        803.22349990188525
  SCCS| Hartree energy of the solute only    [Hartree]        803.25178186455685
  SCCS| Polarisation energy                  [Hartree]         -0.02828196267148
  SCCS|                                      [kcal/mol]                  -17.747
  SCCS| Cavitation energy                    [Hartree]          0.00643891460630
  SCCS|                                      [kcal/mol]                    4.040
  SCCS| Dispersion free energy               [Hartree]         -0.20378945136703
  SCCS|                                      [kcal/mol]                 -127.880
  SCCS| Repulsion free energy                [Hartree]          0.00174674564279
  SCCS|                                      [kcal/mol]                    1.096
  SCCS| Solvation free energy                [Hartree]         -0.22388575378942
  SCCS|                                      [kcal/mol]                 -140.490
    30 Broy./Diag. 0.40E+00    2.1     0.00000066      -828.3199111728 -7.28E-07

  *** SCF run converged in    30 steps ***


  Electronic density on regular grids:       -559.9999999981        0.0000000019
  Core density on regular grids:              559.9999999996       -0.0000000004
  Total charge density on r-space grids:        0.0000000015
  Total charge density g-space grids:           0.0000000015

  Overlap energy of the core charge distribution:               0.00004303421694
  Self energy of the core charge distribution:              -1996.35753382145731
  Core Hamiltonian energy:                                    614.78464922867681
  Hartree energy:                                             803.25178186455685
  Exchange-correlation energy:                               -249.42048649171437
  Dispersion energy:                                           -0.55008302441076

  SCCS| Hartree energy of solute and solvent [Hartree]        803.22349990188525
  SCCS| Hartree energy of the solute only    [Hartree]        803.25178186455685
  SCCS| Polarisation energy                  [Hartree]         -0.02828196267148
  SCCS|                                      [kcal/mol]                  -17.747
  SCCS| Cavitation energy                    [Hartree]          0.00643891460630
  SCCS|                                      [kcal/mol]                    4.040
  SCCS| Dispersion free energy               [Hartree]         -0.20378945136703
  SCCS|                                      [kcal/mol]                 -127.880
  SCCS| Repulsion free energy                [Hartree]          0.00174674564279
  SCCS|                                      [kcal/mol]                    1.096
  SCCS| Solvation free energy                [Hartree]         -0.22388575378942
  SCCS|                                      [kcal/mol]                 -140.490

  Total energy:                                              -828.31991117280336

   Calculate DOS at iteration step                                   0
  
  Eigenvalues of the occupied subspace spin            1
 ---------------------------------------------
      -0.77100948      -0.77100616      -0.76952867      -0.76952702
      -0.76583013      -0.76581599      -0.76576501      -0.76575023
      -0.71786189      -0.71786017      -0.71784807      -0.71784766
      -0.64760812      -0.64760132      -0.64749790      -0.64749171
      -0.57504939      -0.57491341      -0.57384399      -0.57371603
      -0.57294807      -0.57257183      -0.57245235      -0.57209295
      -0.56119272      -0.56069535      -0.56061669      -0.56014010
      -0.51392539      -0.51377030      -0.51355094      -0.51332247
      -0.49171625      -0.49147710      -0.49084837      -0.49051355
      -0.47902547      -0.47858141      -0.47699014      -0.47618881
      -0.47577375      -0.47510835      -0.47437319      -0.47426910
      -0.47093384      -0.46979536      -0.46809984      -0.46704042
      -0.46667854      -0.46628769      -0.46594580      -0.46549539
      -0.44923899      -0.44877391      -0.44870043      -0.44835294
      -0.42200314      -0.42169825      -0.41875746      -0.41851346
      -0.41056095      -0.41007892      -0.41005639      -0.40958511
      -0.39527424      -0.39484729      -0.39482758      -0.39449151
      -0.36978728      -0.36951619      -0.36885009      -0.36869675
      -0.34291650      -0.34281627      -0.34219221      -0.34118345
      -0.33949418      -0.33946897      -0.33855373      -0.33830372
      -0.33630062      -0.33576669      -0.33508972      -0.33348523
      -0.33335168      -0.33098055      -0.33037966      -0.33034052
      -0.30094878      -0.30078158      -0.30064411      -0.29999705
      -0.29484935      -0.29473485      -0.29305851      -0.29148387
      -0.28027842      -0.27798516      -0.27482412      -0.27111808
      -0.26858597      -0.26740179      -0.26403884      -0.26371283
      -0.25637153      -0.25581023      -0.25432383      -0.25392224
      -0.25251508      -0.25186685      -0.24762179      -0.24721432
      -0.23659547      -0.23646096      -0.23594093      -0.23469438
      -0.22767834      -0.22651437      -0.22597933      -0.22539074
      -0.22384476      -0.22182664      -0.22126292      -0.21919649
      -0.21530579      -0.21356149      -0.21337110      -0.21295782
      -0.21168381      -0.21122373      -0.20801744      -0.20712856
      -0.20711015      -0.20707970      -0.20483083      -0.20370077
      -0.20314259      -0.20281460      -0.20192005      -0.20065178
      -0.19622031      -0.19552143      -0.19546873      -0.19455506
      -0.19221520      -0.19093307      -0.18855379      -0.18750905
      -0.18627591      -0.18590549      -0.17982979      -0.17881276
      -0.17529729      -0.17469489      -0.17210687      -0.17140458
      -0.17124164      -0.17034412      -0.17014318      -0.16733287
      -0.16525993      -0.16493612      -0.16492994      -0.16421425
      -0.16030059      -0.16017558      -0.15994839      -0.15919554
      -0.15912406      -0.15739306      -0.15601253      -0.15384315
      -0.15175021      -0.15036264      -0.15007065      -0.14959502
      -0.14523863      -0.14329665      -0.14257477      -0.14243635
      -0.14225497      -0.14162586      -0.13861399      -0.13860975
      -0.13832537      -0.13781242      -0.13702457      -0.13643576
      -0.13621011      -0.13448116      -0.12903367      -0.12892027
      -0.12804179      -0.12687768      -0.12635661      -0.12566624
      -0.12418048      -0.12401180      -0.12364708      -0.12306267
      -0.12220326      -0.12107451      -0.11878053      -0.11808726
      -0.11276454      -0.11245184      -0.11214339      -0.11069262
      -0.10884462      -0.10838257      -0.10780988      -0.10770112
      -0.10542548      -0.10504246      -0.10293359      -0.10244861
      -0.10244787      -0.10227076      -0.09915430      -0.09890227
      -0.09869145      -0.09729457      -0.09714142      -0.09508822
      -0.08622576      -0.08592953      -0.08488248      -0.08325187
      -0.08169556      -0.08137982      -0.08075367      -0.07936248
      -0.07649723      -0.07570082      -0.07515697      -0.07447406
      -0.07424831      -0.07154880      -0.06954570      -0.06798982
      -0.06425258      -0.06339526      -0.06276268      -0.06272703
      -0.04578068      -0.04533577      -0.04462071      -0.04363390
      -0.04003828      -0.03911364      -0.03891884      -0.03829525
      -0.02374454      -0.02339884      -0.01737760      -0.01681442
      -0.01567013      -0.01426636      -0.01229436      -0.01126167
      -0.00841510      -0.00834356      -0.00825691      -0.00683844
       0.00735030       0.00750942       0.00752909       0.00795731
       0.00820311       0.00905042       0.01054680       0.01129911
       0.01262181       0.01334759       0.01413509       0.01469495
       0.01700307       0.01730827       0.02028224       0.02125497
 Fermi Energy [eV] :    0.578377
  
  Lowest eigenvalues of the unoccupied subspace spin            1
 ---------------------------------------------
       0.10642958

 *******************************************************************************
 **                                                                           **
 **         ######## #######   #######   ######## #######  ########           **
 **            ##    ##     ## ##     ## ##       ##   ##     ##              **
 **            ##    ##     ## ##     ## ######   #######     ##              **
 **            ##    ##     ## ##     ## ##       ##          ##              **
 **            ##    #######   #######   ##       ##          ##              **
 **                                                                           **
 *******************************************************************************
 KERNEL|                                                                    sTDA
 KERNEL| Coulomb term uses Ewald summation
 KERNEL| Exact exchange term                                                 YES
 KERNEL| Short range HFX fraction:                                         0.200
 KERNEL| Transition density filter                                     0.100E-09
 KERNEL| Spin symmetry of excitations                                    Singlet
 TDDFPT| Number of states calculated                                         500
 TDDFPT| Number of Davidson iterations                                       100
 TDDFPT| Davidson iteration convergence                                0.367E-05
 TDDFPT| Max. number of Krylov space vectors                                5000
 TDDFPT| Molecular Orbitals:        Spin       AOs       Occ      Virt     Total
 TDDFPT|                               1      2408       280      2128      2408
 sTDA| HFX Fraction                                                       0.2000
 sTDA| Mataga-Nishimoto exponent (C)                                      1.5160
 sTDA| Mataga-Nishimoto exponent (X)                                      0.5660
 sTDA| TD matrix filter                                           0.10000000E-09
 
 -------------------------------------------------------------------------------
 -                      sTDA Kernel: Create Matrix SQRT(S)                     -
 -------------------------------------------------------------------------------

     Lanczos converged:  F threshold:   0.100E-03
     Est. extremal eigenvalues:    0.145E+02   0.151E-02
     Est. condition number :    0.957E+04

 Order=           3
     NS sqrt iter    1 1.00000000   0.296E+01       0.074     6639.558
     NS sqrt iter    2 1.00000000   0.197E+01       0.113    10975.451
     NS sqrt iter    3 1.00000000   0.119E+01       0.113    10956.219
     NS sqrt iter    4 1.00000000   0.828E+00       0.112    11047.295
     NS sqrt iter    5 1.00000000   0.604E+00       0.113    10945.018
     NS sqrt iter    6 1.00000000   0.451E+00       0.114    10920.208
     NS sqrt iter    7 1.00000000   0.336E+00       0.113    10950.603
     NS sqrt iter    8 1.00000000   0.266E+00       0.113    11023.855
     NS sqrt iter    9 1.00000000   0.219E+00       0.113    10977.342
     NS sqrt iter   10 1.00000000   0.177E+00       0.113    10983.918
     NS sqrt iter   11 1.00000000   0.133E+00       0.112    11040.396
     NS sqrt iter   12 1.00000000   0.850E-01       0.113    11030.553
     NS sqrt iter   13 1.00000000   0.383E-01       0.113    10975.070
     NS sqrt iter   14 1.00000000   0.592E-02       0.112    10911.678
     NS sqrt iter   15 1.00000000   0.442E-04       0.108     8760.982
     Symmetrizing Results
     Final NS sqrt iter   15 1.00000000   0.139E-05


 EWALD| Summation is done by:                                               SPME
 EWALD| Alpha parameter [       ANGSTROM^-1]                              1.8897
 EWALD| Real Space Cutoff [          ANGSTROM]                            1.7854
 EWALD| G-space max. Miller index                        125        45       225
 EWALD| Spline interpolation order                                             6
 
 -------------------------------------------------------------------------------
 -                            TDDFPT Initial Guess                             -
 -------------------------------------------------------------------------------
          State         Occupied      ->      Virtual          Excitation
          number         orbital              orbital          energy (eV)
 -------------------------------------------------------------------------------
             1              280                  281              2.31772
             2              280                  282              2.32676
             3              279                  281              2.34419
             4              280                  283              2.34479
             5              279                  282              2.35322
             6              280                  284              2.35758
             7              279                  283              2.37126
             8              279                  284              2.38405
             9              278                  281              2.42511
            10              277                  281              2.43342
            11              278                  282              2.43415
            12              277                  282              2.44246
            13              278                  283              2.45219
            14              277                  283              2.46049
            15              278                  284              2.46497
            16              277                  284              2.47328
            17              276                  281              2.49623
            18              276                  282              2.50526
            19              275                  281              2.51146
            20              275                  282              2.52050
            21              276                  283              2.52330
            22              274                  281              2.53289
            23              276                  284              2.53608
            24              275                  283              2.53853
            25              274                  282              2.54193
            26              275                  284              2.55132
            27              273                  281              2.55264
            28              274                  283              2.55996
            29              273                  282              2.56168
            30              274                  284              2.57275
            31              273                  283              2.57971
            32              272                  281              2.58863
            33              273                  284              2.59250
            34              272                  282              2.59767
            35              271                  281              2.60910
            36              272                  283              2.61570
            37              271                  282              2.61814
            38              272                  284              2.62849
            39              271                  283              2.63617
            40              271                  284              2.64896
            41              270                  281              2.64982
            42              270                  282              2.65886
            43              269                  281              2.67288
            44              270                  283              2.67689
            45              268                  281              2.67957
            46              269                  282              2.68191
            47              268                  282              2.68860
            48              270                  284              2.68968
            49              267                  281              2.69122
            50              266                  281              2.69175
            51              265                  281              2.69608
            52              269                  283              2.69995
            53              267                  282              2.70026
            54              266                  282              2.70079
            55              265                  282              2.70512
            56              268                  283              2.70664
            57              269                  284              2.71274
            58              267                  283              2.71829
            59              266                  283              2.71883
            60              268                  284              2.71942
            61              265                  283              2.72316
            62              267                  284              2.73108
            63              266                  284              2.73161
            64              265                  284              2.73594
            65              280                  285              2.91287
            66              280                  286              2.93893
            67              279                  285              2.93934
            68              280                  287              2.95064
            69              279                  286              2.96540
            70              280                  288              2.97507
            71              279                  287              2.97711
            72              279                  288              3.00154
            73              278                  285              3.02027
            74              277                  285              3.02857
            75              278                  286              3.04632
            76              277                  286              3.05463
            77              278                  287              3.05804
            78              277                  287              3.06634
            79              264                  281              3.08218
            80              278                  288              3.08247
            81              277                  288              3.09077
            82              264                  282              3.09122
            83              276                  285              3.09138
            84              275                  285              3.10661
            85              264                  283              3.10925
            86              276                  286              3.11744
            87              263                  281              3.12078
            88              264                  284              3.12204
            89              262                  281              3.12314
            90              261                  281              3.12508
            91              274                  285              3.12804
            92              276                  287              3.12915
            93              263                  282              3.12981
            94              262                  282              3.13217
            95              275                  286              3.13267
            96              261                  282              3.13412
            97              275                  287              3.14438
            98              273                  285              3.14779
            99              263                  283              3.14785
           100              262                  283              3.15021
           101              261                  283              3.15215
           102              276                  288              3.15358
           103              274                  286              3.15410
           104              263                  284              3.16064
           105              262                  284              3.16299
           106              261                  284              3.16494
           107              274                  287              3.16581
           108              275                  288              3.16881
           109              273                  286              3.17385
           110              272                  285              3.18378
           111              273                  287              3.18556
           112              274                  288              3.19024
           113              260                  281              3.20254
           114              271                  285              3.20425
           115              272                  286              3.20984
           116              273                  288              3.20999
           117              260                  282              3.21158
           118              272                  287              3.22155
           119              260                  283              3.22961
           120              271                  286              3.23031
           121              259                  281              3.23064
           122              259                  282              3.23968
           123              271                  287              3.24202
           124              260                  284              3.24240
           125              270                  285              3.24497
           126              272                  288              3.24598
           127              259                  283              3.25771
           128              271                  288              3.26646
           129              269                  285              3.26803
           130              259                  284              3.27050
           131              270                  286              3.27103
           132              268                  285              3.27472
           133              270                  287              3.28274
           134              258                  281              3.28430
           135              267                  285              3.28637
           136              266                  285              3.28691
           137              265                  285              3.29124
           138              258                  282              3.29334
           139              269                  286              3.29409
           140              268                  286              3.30078
           141              269                  287              3.30580
           142              270                  288              3.30717
           143              258                  283              3.31137
           144              267                  286              3.31243
           145              268                  287              3.31249
           146              266                  286              3.31296
           147              265                  286              3.31729
           148              257                  281              3.32250
           149              267                  287              3.32414
           150              258                  284              3.32416
           151              266                  287              3.32468
           152              265                  287              3.32901
           153              269                  288              3.33023
           154              257                  282              3.33154
           155              268                  288              3.33692
           156              267                  288              3.34857
           157              266                  288              3.34911
           158              257                  283              3.34957
           159              265                  288              3.35344
           160              256                  281              3.35364
           161              257                  284              3.36236
           162              256                  282              3.36268
           163              255                  281              3.36896
           164              255                  282              3.37800
           165              256                  283              3.38071
           166              256                  284              3.39350
           167              255                  283              3.39604
           168              255                  284              3.40882
           169              254                  281              3.53281
           170              254                  282              3.54185
           171              253                  281              3.54222
           172              253                  282              3.55125
           173              254                  283              3.55988
           174              253                  283              3.56929
           175              254                  284              3.57267
           176              253                  284              3.58208
           177              280                  289              3.67487
           178              264                  285              3.67733
           179              279                  289              3.70134
           180              264                  286              3.70339
           181              264                  287              3.71510
           182              263                  285              3.71593
           183              262                  285              3.71829
           184              261                  285              3.72023
           185              264                  288              3.73953
           186              263                  286              3.74199
           187              262                  286              3.74435
           188              261                  286              3.74629
           189              263                  287              3.75370
           190              262                  287              3.75606
           191              261                  287              3.75800
           192              263                  288              3.77813
           193              262                  288              3.78049
           194              278                  289              3.78226
           195              261                  288              3.78244
           196              280                  290              3.78359
           197              277                  289              3.79057
           198              260                  285              3.79769
           199              279                  290              3.81006
           200              280                  291              3.81448
           201              260                  286              3.82375
           202              259                  285              3.82579
           203              260                  287              3.83546
           204              279                  291              3.84095
           205              259                  286              3.85185
           206              276                  289              3.85337
           207              260                  288              3.85989
           208              259                  287              3.86356
           209              275                  289              3.86861
           210              258                  285              3.87945
           211              259                  288              3.88800
           212              274                  289              3.89004
           213              278                  290              3.89099
           214              277                  290              3.89929
           215              258                  286              3.90551
           216              273                  289              3.90979
           217              258                  287              3.91723
           218              257                  285              3.91765
           219              278                  291              3.92188
           220              280                  292              3.92798
           221              277                  291              3.93018
           222              252                  281              3.93816
           223              258                  288              3.94166
           224              257                  286              3.94371
           225              272                  289              3.94578
           226              252                  282              3.94720
           227              256                  285              3.94879
           228              279                  292              3.95445
           229              251                  281              3.95513
           230              257                  287              3.95542
           231              280                  293              3.95628
           232              250                  281              3.96043
           233              276                  290              3.96210
           234              255                  285              3.96412
           235              251                  282              3.96417
           236              252                  283              3.96523
           237              271                  289              3.96625
           238              250                  282              3.96947
           239              256                  286              3.97485
           240              275                  290              3.97733
           241              252                  284              3.97802
           242              257                  288              3.97985
           243              251                  283              3.98220
           244              279                  293              3.98275
           245              249                  281              3.98559
           246              256                  287              3.98656
           247              250                  283              3.98750
           248              255                  286              3.99017
           249              276                  291              3.99299
           250              249                  282              3.99463
           251              251                  284              3.99499
           252              274                  290              3.99876
           253              250                  284              4.00029
           254              255                  287              4.00189
           255              270                  289              4.00697
           256              275                  291              4.00822
           257              256                  288              4.01099
           258              249                  283              4.01266
           259              273                  290              4.01851
           260              280                  294              4.02398
           261              249                  284              4.02545
           262              255                  288              4.02632
           263              274                  291              4.02965
           264              269                  289              4.03002
           265              278                  292              4.03538
           266              268                  289              4.03671
           267              277                  292              4.04368
           268              267                  289              4.04837
           269              266                  289              4.04890
           270              273                  291              4.04940
           271              279                  294              4.05045
           272              265                  289              4.05323
           273              272                  290              4.05451
           274              280                  295              4.05620
           275              280                  296              4.06087
           276              278                  293              4.06367
           277              277                  293              4.07198
           278              271                  290              4.07498
           279              279                  295              4.08267
           280              248                  281              4.08343
           281              272                  291              4.08539
           282              279                  296              4.08734
           283              248                  282              4.09247
           284              271                  291              4.10587
           285              276                  292              4.10649
           286              247                  281              4.11029
           287              248                  283              4.11051
           288              270                  290              4.11570
           289              247                  282              4.11932
           290              275                  292              4.12172
           291              248                  284              4.12329
           292              254                  285              4.12796
           293              246                  281              4.12975
           294              278                  294              4.13138
           295              276                  293              4.13479
           296              247                  283              4.13736
           297              253                  285              4.13737
           298              269                  290              4.13875
           299              246                  282              4.13878
           300              277                  294              4.13968
           301              245                  281              4.14185
           302              274                  292              4.14315
           303              268                  290              4.14544
           304              270                  291              4.14658
           305              275                  293              4.15002
           306              247                  284              4.15014
           307              245                  282              4.15089
           308              254                  286              4.15402
           309              246                  283              4.15682
           310              267                  290              4.15709
           311              266                  290              4.15763
           312              265                  290              4.16196
           313              273                  292              4.16290
           314              253                  286              4.16343
           315              278                  295              4.16360
           316              254                  287              4.16573
           317              278                  296              4.16826
           318              245                  283              4.16892
           319              246                  284              4.16960
           320              269                  291              4.16964
           321              274                  293              4.17145
           322              277                  295              4.17190
           323              253                  287              4.17514
           324              268                  291              4.17633
           325              277                  296              4.17657
           326              245                  284              4.18171
           327              267                  291              4.18798
           328              266                  291              4.18852
           329              254                  288              4.19016
           330              273                  293              4.19120
           331              265                  291              4.19285
           332              272                  292              4.19889
           333              253                  288              4.19957
           334              276                  294              4.20249
           335              275                  294              4.21772
           336              271                  292              4.21937
           337              280                  297              4.22613
           338              272                  293              4.22719
           339              276                  295              4.23471
           340              274                  294              4.23915
           341              276                  296              4.23938
           342              271                  293              4.24766
           343              275                  295              4.24995
           344              280                  298              4.25195
           345              279                  297              4.25260
           346              275                  296              4.25461
           347              273                  294              4.25890
           348              270                  292              4.26008
           349              274                  295              4.27137
           350              274                  296              4.27604
           351              280                  299              4.27816
           352              279                  298              4.27842
           353              269                  292              4.28314
           354              270                  293              4.28838
           355              268                  292              4.28983
           356              273                  295              4.29112
           357              272                  294              4.29489
           358              273                  296              4.29579
           359              280                  300              4.29636
           360              267                  292              4.30148
           361              266                  292              4.30202
           362              279                  299              4.30463
           363              265                  292              4.30635
           364              269                  293              4.31144
           365              271                  294              4.31536
           366              268                  293              4.31813
           367              279                  300              4.32283
           368              272                  295              4.32712
           369              267                  293              4.32978
           370              266                  293              4.33031
           371              272                  296              4.33178
           372              278                  297              4.33353
           373              265                  293              4.33464
           374              280                  301              4.33465
           375              277                  297              4.34183
           376              271                  295              4.34759
           377              271                  296              4.35225
           378              270                  294              4.35608
           379              278                  298              4.35935
           380              280                  302              4.35967
           381              279                  301              4.36112
           382              277                  298              4.36765
           383              280                  303              4.37494
           384              269                  294              4.37914
           385              278                  299              4.38556
           386              268                  294              4.38583
           387              279                  302              4.38614
           388              270                  295              4.38831
           389              270                  296              4.39297
           390              277                  299              4.39387
           391              267                  294              4.39748
           392              266                  294              4.39802
           393              279                  303              4.40141
           394              265                  294              4.40235
           395              278                  300              4.40375
           396              276                  297              4.40464
           397              269                  295              4.41136
           398              277                  300              4.41206
           399              269                  296              4.41603
           400              268                  295              4.41805
           401              275                  297              4.41988
           402              268                  296              4.42272
           403              280                  304              4.42834
           404              267                  295              4.42970
           405              266                  295              4.43024
           406              276                  298              4.43046
           407              267                  296              4.43437
           408              265                  295              4.43457
           409              266                  296              4.43490
           410              265                  296              4.43923
           411              264                  289              4.43933
           412              274                  297              4.44130
           413              278                  301              4.44204
           414              275                  298              4.44569
           415              277                  301              4.45035
           416              279                  304              4.45481
           417              276                  299              4.45667
           418              273                  297              4.46105
           419              278                  302              4.46706
           420              274                  298              4.46712
           421              275                  299              4.47191
           422              276                  300              4.47487
           423              277                  302              4.47537
           424              263                  289              4.47792
           425              262                  289              4.48028
           426              261                  289              4.48223
           427              278                  303              4.48234
           428              273                  298              4.48687
           429              275                  300              4.49010
           430              277                  303              4.49064
           431              274                  299              4.49334
           432              272                  297              4.49705
           433              274                  300              4.51153
           434              273                  299              4.51309
           435              276                  301              4.51316
           436              271                  297              4.51752
[...]
 flops   212 x   160 x    32         555745280000       0.0%    100.0%      0.0%
 flops   144 x    32 x    80         566266429440       0.0%    100.0%      0.0%
 flops   229 x   160 x    32         600309760000       0.0%    100.0%      0.0%
 flops   171 x    32 x    86         602395407360       0.0%    100.0%      0.0%
 flops   171 x    32 x    75         630413798400       0.0%    100.0%      0.0%
 flops   189 x    32 x    86         665805450240       0.0%    100.0%      0.0%
 flops   171 x    32 x    80         672441384960       0.0%    100.0%      0.0%
 flops   258 x   160 x    32         676331520000       0.0%    100.0%      0.0%
 flops   195 x    32 x    86         686942131200       0.0%    100.0%      0.0%
 flops   189 x    32 x    75         696773145600       0.0%    100.0%      0.0%
 flops   195 x    32 x    75         718892928000       0.0%    100.0%      0.0%
 flops   206 x    32 x    86         725692712960       0.0%    100.0%      0.0%
 flops   184 x   161 x    32         728039424000       0.0%    100.0%      0.0%
 flops   189 x    32 x    80         743224688640       0.0%    100.0%      0.0%
 flops   212 x    32 x    86         746829393920       0.0%    100.0%      0.0%
 flops   206 x    32 x    75         759445862400       0.0%    100.0%      0.0%
 flops   195 x    32 x    80         766819123200       0.0%    100.0%      0.0%
 flops   212 x    32 x    75         781565644800       0.0%    100.0%      0.0%
 flops    17 x    17 x    17         803871623768       0.0%    100.0%      0.0%
 flops   229 x    32 x    86         806716656640       0.0%    100.0%      0.0%
 flops   206 x    32 x    80         810075586560       0.0%    100.0%      0.0%
 flops   212 x    32 x    80         833670021120       0.0%    100.0%      0.0%
 flops   229 x    32 x    75         844238361600       0.0%    100.0%      0.0%
 flops   218 x   161 x    32         862568448000       0.0%    100.0%      0.0%
 flops   229 x    32 x    80         900520919040       0.0%    100.0%      0.0%
 flops   258 x    32 x    86         908877281280       0.0%    100.0%      0.0%
 flops   258 x    32 x    75         951150643200       0.0%    100.0%      0.0%
 flops   184 x   160 x    32         964689920000       0.0%    100.0%      0.0%
 flops   258 x    32 x    80        1014560686080       0.0%    100.0%      0.0%
 flops   218 x   160 x    32        1142947840000       0.0%    100.0%      0.0%
 flops     6 x    32 x     6        1226509664256       0.0%    100.0%      0.0%
 flops   184 x    32 x    86        1296383098880       0.0%    100.0%      0.0%
 flops   184 x    32 x    75        1356679987200       0.0%    100.0%      0.0%
 flops   184 x    32 x    80        1447125319680       0.0%    100.0%      0.0%
 flops   218 x    32 x    86        1535932149760       0.0%    100.0%      0.0%
 flops   218 x    32 x    75        1607370854400       0.0%    100.0%      0.0%
 flops   218 x    32 x    80        1714528911360       0.0%    100.0%      0.0%
 flops    17 x    24 x    17        1998623603712       0.0%    100.0%      0.0%
 flops     6 x    32 x    17        5491830091776       0.0%    100.0%      0.0%
 flops    17 x    32 x     6        5491830091776       0.0%    100.0%      0.0%
 flops    17 x    32 x    17       21349228768256       0.0%    100.0%      0.0%
 flops inhomo. stacks              33741239575680     100.0%      0.0%      0.0%
 flops total                       114.437595E+12      29.5%     70.5%      0.0%
 flops max/rank                      2.164643E+12      34.3%     65.7%      0.0%
 matmuls inhomo. stacks                  22465404     100.0%      0.0%      0.0%
 matmuls total                         4281809400       0.5%     99.5%      0.0%
 number of processed stacks             207716299      10.8%     89.2%      0.0%
 average stack size                                     1.0      23.0       0.0
 marketing flops                   104.186595E+12
 -------------------------------------------------------------------------------
 # multiplications                          31598
 max memory usage/rank               1.653928E+09
 # max total images/rank                        5
 # max 3D layers                                1
 # MPI messages exchanged               150722460
 MPI messages size (bytes):
  total size                        18.953150E+12
  min size                           0.000000E+00
  max size                         347.328000E+03
  average size                     125.748672E+03
 MPI breakdown and total messages size (bytes):
             size <=      128            38209840                        0
       128 < size <=     8192                 563                  2419568
      8192 < size <=    32768            37434267             751112099216
     32768 < size <=   131072             5604692             417714124704
    131072 < size <=  4194304            69473098           17762796512096
   4194304 < size <= 16777216                   0                        0
  16777216 < size                               0                        0
 -------------------------------------------------------------------------------

 *** WARNING in dbcsr_mm.F:291 :: Using a non-square number of MPI ranks ***
 *** might lead to poor performance. Used ranks: 90 Suggested: 81 169    ***

 -------------------------------------------------------------------------------
 -                                                                             -
 -                      DBCSR MESSAGE PASSING PERFORMANCE                      -
 -                                                                             -
 -------------------------------------------------------------------------------
 ROUTINE             CALLS      AVE VOLUME [Bytes]
 MP_Bcast              149                     12.
 MP_Allreduce       135401                      8.
 MP_Alltoall        726671                  55007.
 MP_ISend          3625192                  62351.
 MP_IRecv          3679272                  60763.
 -------------------------------------------------------------------------------

 -------------------------------------------------------------------------------
 -                                                                             -
 -                                DBM STATISTICS                               -
 -                                                                             -
 -------------------------------------------------------------------------------
    M  x    N  x    K                                          COUNT     PERCENT
 -------------------------------------------------------------------------------

 -------------------------------------------------------------------------------
 -                                                                             -
 -                                GRID STATISTICS                              -
 -                                                                             -
 -------------------------------------------------------------------------------
 LP    KERNEL             BACKEND                              COUNT     PERCENT
 2     collocate general  CPU                                6023710      22.59%
 2     integrate general  CPU                                5829180      21.86%
 1     collocate general  CPU                                4896560      18.37%
 1     integrate general  CPU                                4737360      17.77%
 3     collocate general  CPU                                1437036       5.39%
 3     integrate general  CPU                                1390680       5.22%
 0     collocate general  CPU                                1109494       4.16%
 0     integrate general  CPU                                1055820       3.96%
 4     collocate general  CPU                                  91636       0.34%
 4     integrate general  CPU                                  88680       0.33%
 -------------------------------------------------------------------------------

 MEMORY| Estimated peak process memory [MiB]                                1578

 -------------------------------------------------------------------------------
 -                                                                             -
 -                         MESSAGE PASSING PERFORMANCE                         -
 -                                                                             -
 -------------------------------------------------------------------------------

 ROUTINE             CALLS      AVE VOLUME [Bytes]
 MP_Group                5
 MP_Bcast              316                2219475.
 MP_Allreduce      6394837                     47.
 MP_Sync                65
 MP_Alltoall         10681                 864214.
 MP_SendRecv          9167                  44641.
 MP_ISendRecv         8010                  46400.
 MP_Wait            234916
 MP_comm_split          40
 MP_ISend           154440                  13422.
 MP_IRecv           202262                  10246.
 MP_Write_All            2                 568800.
 -------------------------------------------------------------------------------


 -------------------------------------------------------------------------------
 -                                                                             -
 -                           R E F E R E N C E S                               -
 -                                                                             -
 -------------------------------------------------------------------------------
 
 CP2K version 2023.2, the CP2K developers group (2023).
 CP2K is freely available from https://www.cp2k.org/ .

 Kuehne,Thomas D.; Iannuzzi,Marcella; Del Ben,Mauro;
 Rybkin,Vladimir V.; Seewald,Patrick; Stein,Frederick; Laino,Teodoro;
 Khaliullin,Rustam Z.; Schuett,Ole; Schiffmann,Florian; Golze,Dorothea;
 Wilhelm,Jan; Chulkov,Sergey; Bani-Hashemian,Mohammad Hossein;
 Weber,Valery; Borstnik,Urban; Taillefumier,Mathieu;
 Jakobovits,Alice Shoshana; Lazzaro,Alfio; Pabst,Hans; Mueller,Tiziano;
 Schade,Robert; Guidon,Manuel; Andermatt,Samuel; Holmberg,Nico;
 Schenter,Gregory K.; Hehn,Anna; Bussy,Augustin; Belleflamme,Fabian;
 Tabacchi,Gloria; Gloess,Andreas; Lass,Michael; Bethune,Iain;
 Mundy,Christopher J.; Plessl,Christian; Watkins,Matt;
 VandeVondele,Joost; Krack,Matthias; Hutter,Juerg. 
 The Journal of Chemical Physics, 152 (19), (2020). 
 CP2K: An electronic structure and molecular dynamics software package -
 Quickstep: Efficient and accurate electronic structure calculations.
 https://doi.org/10.1063/5.0007045

 Yin, Wen-Jin; Krack, Matthias; Li, Xibo; Chen, Li-Zhen; Liu, Li-Min. 
 Prog. Nat. Sci., 27 (2), 283-288 (2017). 
 Periodic continuum solvation model integrated with first-principles
 calculations for solid surfaces.
 https://doi.org/10.1016/j.pnsc.2017.03.003

 Goerigk, Lars; Hansen, Andreas; Bauer, Christoph; Ehrlich, Stephan;
 Najibi, Asim; Grimme, Stefan. , 19 (48), (2017). 
 A look at the density functional theory zoo with the advanced GMTKN55 database
 for general main group thermochemistry, kinetics and noncovalent interactions.
 https://doi.org/10.1039/C7CP04913G

 Grimme, S; Bannwarth, C. 
 The Journal of Chemical Physics, 145, 054103 (2016). 
 Ultra-fast computation of electronic spectra for large systems
 by tight-binding based simplified Tamm-Dancoff approximation (sTDA-xTB).
 https://doi.org/10.1063/1.4959605

 Schuett, Ole; Messmer, Peter; Hutter, Juerg; VandeVondele, Joost. 
 Electronic Structure Calculations on Graphics Processing Units, John
 Wiley & Sons, Ltd, 173-190 (2016). 
 GPU-Accelerated Sparse Matrix-Matrix Multiplication for
 Linear Scaling Density Functional Theory.
 https://doi.org/10.1002/9781118670712.ch8

 Heinecke, A; Henry, G; Hutchinson, M; Pabst, H. 
 Proceedings of Intl. Supercomputing Conference, 981-991 (2016). 
 LIBXSMM: Accelerating Small Matrix Multiplications
 by Runtime Code Generation.
 https://doi.org/10.1109/SC.2016.83

 Borstnik, U; VandeVondele, J; Weber, V; Hutter, J. 
 PARALLEL COMPUTING, 40 (5-6), 47-58 (2014). 
 Sparse matrix multiplication: The distributed block-compressed sparse
 row library.
 https://doi.org/10.1016/j.parco.2014.03.012

 Hutter, J; Iannuzzi, M; Schiffmann, F; VandeVondele, J. 
 WIREs Comput Mol Sci., 4 (1), 15-25 (2014). 
 CP2K: atomistic simulations of condensed matter systems.
 https://doi.org/10.1002/wcms.1159

 Grimme, S. The Journal of Chemical Physics, 138, 244104 (2013). 
 A simplified Tamm-Dancoff density functional approach for
 the electronic excitation spectra of very large molecules.
 https://doi.org/10.1063/1.4811331

 Grimme, S; Ehrlich, S; Goerigk, L. 
 JOURNAL OF COMPUTATIONAL CHEMISTRY, 32, 1456 (2011). 
 Effect of the damping function in dispersion corrected density functional theory.
 https://doi.org/10.1002/jcc.21759

 Grimme, S; Antony, J; Ehrlich, S; Krieg, H. 
 JOURNAL OF CHEMICAL PHYSICS, 132 (15), 154104 (2010). 
 A consistent and accurate ab initio parametrization of density
 functional dispersion correction (DFT-D) for the 94 elements H-Pu.
 https://doi.org/10.1063/1.3382344

 Krack, M. 
 THEORETICAL CHEMISTRY ACCOUNTS, 114 (1-3), 145-152 (2005). 
 Pseudopotentials for H to Kr optimized for gradient-corrected
 exchange-correlation functionals.
 https://doi.org/10.1007/s00214-005-0655-y

 VandeVondele, J; Krack, M; Mohamed, F; Parrinello, M; Chassaing, T;
 Hutter, J. COMPUTER PHYSICS COMMUNICATIONS, 167 (2), 103-128 (2005). 
 QUICKSTEP: Fast and accurate density functional calculations using a
 mixed Gaussian and plane waves approach.
 https://doi.org/10.1016/j.cpc.2004.12.014

 Frigo, M; Johnson, SG. 
 PROCEEDINGS OF THE IEEE, 93 (2), 216-231 (2005). 
 The design and implementation of FFTW3.
 https://doi.org/10.1109/JPROC.2004.840301

 Iannuzzi, M; Chassaing, T; Wallman, T; Hutter, J. 
 CHIMIA, 59 (7-8), 499-503 (2005). 
 Ground and excited state density functional calculations with the
 Gaussian and augmented-plane-wave method.
 https://doi.org/10.2533/000942905777676164

 Fattebert, JL; Gygi, F. J. Comput. Chem., 23 (6), (2002). 
 Density functional theory for efficient ab initio molecular dynamics
 simulations in solution.
 https://doi.org/10.1002/jcc.10069

 Hartwigsen, C; Goedecker, S; Hutter, J. 
 PHYSICAL REVIEW B, 58 (7), 3641-3662 (1998). 
 Relativistic separable dual-space Gaussian pseudopotentials from H to Rn.
 https://doi.org/10.1103/PhysRevB.58.3641

 Lippert, G; Hutter, J; Parrinello, M. 
 MOLECULAR PHYSICS, 92 (3), 477-487 (1997). 
 A hybrid Gaussian and plane wave density functional scheme.
 https://doi.org/10.1080/002689797170220

 Perdew, JP; Burke, K; Ernzerhof, M. 
 PHYSICAL REVIEW LETTERS, 77 (18), 3865-3868 (1996). 
 Generalized gradient approximation made simple.
 https://doi.org/10.1103/PhysRevLett.77.3865

 Goedecker, S; Teter, M; Hutter, J. 
 PHYSICAL REVIEW B, 54 (3), 1703-1710 (1996). 
 Separable dual-space Gaussian pseudopotentials.
 https://doi.org/10.1103/PhysRevB.54.1703


 -------------------------------------------------------------------------------
 -                                                                             -
 -                                T I M I N G                                  -
 -                                                                             -
 -------------------------------------------------------------------------------
 SUBROUTINE                       CALLS  ASD         SELF TIME        TOTAL TIME
                                MAXIMUM       AVERAGE  MAXIMUM  AVERAGE  MAXIMUM
 CP2K                                 1  1.0    0.018    0.026 1511.628 1511.630
 qs_energies                          1  2.0    0.000    0.001 1511.315 1511.318
 qs_energies_properties               1  3.0    0.000    0.000 1421.781 1421.783
 tddfpt                               1  4.0    0.001    0.001 1421.781 1421.783
 tddfpt_energies                      1  5.0    0.000    0.002 1418.059 1418.087
 tddfpt_davidson_solver               2  6.0    0.303    0.312 1383.716 1383.718
 cp_dbcsr_sm_fm_multiply          27507  9.4    0.575    0.665  513.744  517.377
 dbcsr_multiply_generic           31598 11.4    1.582    1.874  428.554  465.186
 cp_dbcsr_sm_fm_multiply_core     27507 10.4    0.061    0.075  405.600  439.798
 tddfpt_compute_Aop_evects            8  7.0    0.000    0.000  433.180  433.280
 tddfpt_orthonormalize_psi1_psi       9  6.9    4.095    4.383  394.494  394.495
 multiply_cannon                  31598 12.4    3.335    4.340  355.299  392.429
 tddfpt_compute_ritz_vects            8  7.0   11.387   19.628  363.728  378.749
 multiply_cannon_loop             31598 13.4    5.656    7.125  336.166  374.135
 stda_kernel                          8  8.0    0.007    0.009  364.096  364.197
 stda_calculate_kernel             4000  9.0    1.223    1.572  364.089  364.189
 mp_waitall_1                   3192454 15.5  236.430  352.011  236.430  352.011
 multiply_cannon_metrocomm3      947940 14.4    1.144    1.335  215.200  333.094
 cp_fm_scale_and_add            *******  8.0  272.883  300.361  272.883  300.361
 cp_fm_trace_a1b1t1_aa          6377250  8.0  104.628  117.386  221.430  242.744
 multiply_cannon_multrec         947940 14.4  100.774  204.236  101.016  204.436
 cp_fm_contracted_trace_a2b2t2_      20  8.0  149.522  161.978  169.047  169.395
 parallel_gemm_fm                 14007  7.9    0.023    0.026  151.920  166.963
 parallel_gemm_fm_cosma           14007  8.9  151.898  166.942  151.898  166.942
 tddfpt_compute_residual_vects        6  7.0    0.120    0.129  133.087  157.830
 mp_sum_dv                      6381600  9.0  115.970  153.973  115.970  153.973
 copy_dbcsr_to_fm                 27541 10.4    0.323    0.435   85.026  139.483
 mp_alltoall_i22                 102651 12.5   75.395  134.482   75.395  134.482
 dbcsr_desymmetrize_deep          27541 11.4    1.109    2.032   61.881  114.571
 get_lowdin_x                      4000 10.0    0.009    0.011   77.462   77.547
 tddfpt_orthogonalize_psi1_psi0       9  6.9    0.011    0.014   55.011   70.041
 scf_env_do_scf                       1  3.0    0.000    0.000   69.484   69.508
 scf_env_do_scf_inner_loop           30  4.0    0.001    0.007   69.484   69.508
 tddfpt_apply_energy_diff             8  8.0    0.041    0.045   69.083   69.084
 make_m2s                         63196 12.4    1.054    1.245   57.844   60.539
 mp_sum_dm                         4057 10.0   20.380   53.341   20.380   53.341
 make_images                      63196 13.4    5.145    8.157   49.198   52.063
 dbcsr_complete_redistribute      75108 11.5    6.628    9.528   44.253   50.389
 mp_sum_iv                          215  8.7   17.591   42.330   17.591   42.330
 copy_fm_to_dbcsr                 47567 10.6    0.150    0.172   25.628   32.229
 qs_ks_update_qs_env                 30  5.0    0.001    0.001   31.318   31.329
 rebuild_ks_matrix                   30  6.0    0.000    0.000   31.307   31.317
 qs_ks_build_kohn_sham_matrix        30  7.0    0.004    0.019   31.307   31.316
 -------------------------------------------------------------------------------

 The number of warnings for this run is : 1
 
 -------------------------------------------------------------------------------
  **** **** ******  **  PROGRAM ENDED AT                 2024-02-20 08:56:12.149
 ***** ** ***  *** **   PROGRAM RAN ON                              99013c94550d
 **    ****   ******    PROGRAM RAN BY                                 <unknown>
 ***** **    ** ** **   PROGRAM PROCESS ID                                   538
  **** **  *******  **  PROGRAM STOPPED IN                                  /mnt
